 Output coordinates in angstroms (scale by  1.889725989 to convert to a.u.)

  No.       Tag          Charge          X              Y              Z
 ---- ---------------- ---------- -------------- -------------- --------------
    1 C                    6.0000     0.23680554     1.41416660     0.00000000
    2 C                    6.0000    -0.23680554    -1.41416660     0.00000000
    3 C                    6.0000     1.31675086     0.48901061     0.00000000
    4 C                    6.0000    -1.31675086    -0.48901061     0.00000000
    5 C                    6.0000     1.08679847    -0.89447642     0.00000000
    6 C                    6.0000    -1.08679847     0.89447642     0.00000000
    7 H                    1.0000     2.34780221     0.86863451     0.00000000
    8 H                    1.0000    -2.34780221    -0.86863451     0.00000000
    9 H                    1.0000     1.93764188    -1.58693865     0.00000000
   10 H                    1.0000    -1.93764188     1.58693865     0.00000000
   11 C                    6.0000    -0.53450789    -2.88212824     0.00000000
   12 C                    6.0000     0.53450789     2.88212824     0.00000000
   13 H                    1.0000    -1.60655769    -3.13289308     0.00000000
   14 H                    1.0000     1.60655769     3.13289308     0.00000000
   15 C                    6.0000     0.36419263    -3.88177971     0.00000000
   16 C                    6.0000    -0.36419263     3.88177971     0.00000000
   17 H                    1.0000     1.44522900    -3.70144241     0.00000000
   18 H                    1.0000    -1.44522900     3.70144241     0.00000000
   19 H                    1.0000     0.04815351    -4.93192286     0.00000000
   20 H                    1.0000    -0.04815351     4.93192286     0.00000000

         Total DFT energy =     -382.308240767378

                       DFT Final Molecular Orbital Analysis
                       ------------------------------------

 Vector    1  Occ=2.000000D+00  E=-1.002024D+01  Symmetry=bu

 Vector    2  Occ=2.000000D+00  E=-1.002019D+01  Symmetry=ag

 Vector    3  Occ=2.000000D+00  E=-1.000793D+01  Symmetry=bu

 Vector    4  Occ=2.000000D+00  E=-1.000793D+01  Symmetry=ag

 Vector    5  Occ=2.000000D+00  E=-1.000689D+01  Symmetry=ag

 Vector    6  Occ=2.000000D+00  E=-1.000688D+01  Symmetry=bu

 Vector    7  Occ=2.000000D+00  E=-1.000624D+01  Symmetry=bu

 Vector    8  Occ=2.000000D+00  E=-1.000609D+01  Symmetry=ag

 Vector    9  Occ=2.000000D+00  E=-9.992164D+00  Symmetry=bu

 Vector   10  Occ=2.000000D+00  E=-9.992164D+00  Symmetry=ag

 Vector   11  Occ=2.000000D+00  E=-8.094663D-01  Symmetry=ag

 Vector   12  Occ=2.000000D+00  E=-7.539346D-01  Symmetry=bu

 Vector   13  Occ=2.000000D+00  E=-7.178615D-01  Symmetry=ag

 Vector   14  Occ=2.000000D+00  E=-6.999225D-01  Symmetry=bu

 Vector   15  Occ=2.000000D+00  E=-6.673151D-01  Symmetry=bu

 Vector   16  Occ=2.000000D+00  E=-5.885092D-01  Symmetry=ag

 Vector   17  Occ=2.000000D+00  E=-5.591515D-01  Symmetry=ag

 Vector   18  Occ=2.000000D+00  E=-5.314211D-01  Symmetry=bu

 Vector   19  Occ=2.000000D+00  E=-5.099374D-01  Symmetry=ag

 Vector   20  Occ=2.000000D+00  E=-4.575995D-01  Symmetry=ag

 Vector   21  Occ=2.000000D+00  E=-4.391975D-01  Symmetry=bu

 Vector   22  Occ=2.000000D+00  E=-4.110180D-01  Symmetry=bu

 Vector   23  Occ=2.000000D+00  E=-3.976932D-01  Symmetry=bu

 Vector   24  Occ=2.000000D+00  E=-3.959386D-01  Symmetry=ag

 Vector   25  Occ=2.000000D+00  E=-3.744295D-01  Symmetry=bu

 Vector   26  Occ=2.000000D+00  E=-3.509365D-01  Symmetry=bu

 Vector   27  Occ=2.000000D+00  E=-3.470152D-01  Symmetry=ag

 Vector   28  Occ=2.000000D+00  E=-3.244703D-01  Symmetry=au

 Vector   29  Occ=2.000000D+00  E=-3.110643D-01  Symmetry=bu

 Vector   30  Occ=2.000000D+00  E=-2.929832D-01  Symmetry=ag

 Vector   31  Occ=2.000000D+00  E=-2.874967D-01  Symmetry=ag

 Vector   32  Occ=2.000000D+00  E=-2.634558D-01  Symmetry=bg

 Vector   33  Occ=2.000000D+00  E=-2.123364D-01  Symmetry=au

 Vector   34  Occ=2.000000D+00  E=-1.951683D-01  Symmetry=bg

 Vector   35  Occ=2.000000D+00  E=-1.529966D-01  Symmetry=bg

 Vector   36  Occ=0.000000D+00  E= 3.750915D-02  Symmetry=au

 Vector   37  Occ=0.000000D+00  E= 9.011731D-02  Symmetry=au

 Vector   38  Occ=0.000000D+00  E= 1.107279D-01  Symmetry=bg

 Vector   39  Occ=0.000000D+00  E= 1.822016D-01  Symmetry=au

 Vector   40  Occ=0.000000D+00  E= 2.723015D-01  Symmetry=bg

 Vector   41  Occ=0.000000D+00  E= 3.324841D-01  Symmetry=ag

 Vector   42  Occ=0.000000D+00  E= 3.406448D-01  Symmetry=bu

 Vector   43  Occ=0.000000D+00  E= 3.795213D-01  Symmetry=bu

 Vector   44  Occ=0.000000D+00  E= 3.812886D-01  Symmetry=ag

 Vector   45  Occ=0.000000D+00  E= 4.103439D-01  Symmetry=ag

 Vector   46  Occ=0.000000D+00  E= 4.112335D-01  Symmetry=bu

 Vector   47  Occ=0.000000D+00  E= 4.258029D-01  Symmetry=bu

 Vector   48  Occ=0.000000D+00  E= 4.393602D-01  Symmetry=ag

 Vector   49  Occ=0.000000D+00  E= 4.537204D-01  Symmetry=bu

 Vector   50  Occ=0.000000D+00  E= 4.783349D-01  Symmetry=ag

 Vector   51  Occ=0.000000D+00  E= 5.255624D-01  Symmetry=ag

 Vector   52  Occ=0.000000D+00  E= 5.463497D-01  Symmetry=bu

 Vector   53  Occ=0.000000D+00  E= 5.764358D-01  Symmetry=ag

 Vector   54  Occ=0.000000D+00  E= 5.984386D-01  Symmetry=bu

 Vector   55  Occ=0.000000D+00  E= 6.248977D-01  Symmetry=bu

 Vector   56  Occ=0.000000D+00  E= 6.398348D-01  Symmetry=ag

 Vector   57  Occ=0.000000D+00  E= 6.828364D-01  Symmetry=ag

 Vector   58  Occ=0.000000D+00  E= 7.173582D-01  Symmetry=bu

 Vector   59  Occ=0.000000D+00  E= 7.790413D-01  Symmetry=ag

 Vector   60  Occ=0.000000D+00  E= 7.942613D-01  Symmetry=bu

     Multipole analysis of the density
     ---------------------------------

     L   x y z        total         alpha         beta         nuclear
     -   - - -        -----         -----         ----         -------
     0   0 0 0     -0.000000    -35.000000    -35.000000     70.000000

     1   1 0 0      0.000000      0.000000      0.000000      0.000000
     1   0 1 0     -0.000000     -0.000000     -0.000000      0.000000
     1   0 0 1      0.000000      0.000000      0.000000      0.000000

     2   2 0 0    -37.347178   -141.071525   -141.071525    244.795872
     2   1 1 0      0.066532      2.848779      2.848779     -5.631027
     2   1 0 1      0.000000      0.000000      0.000000      0.000000
     2   0 2 0    -37.714771   -767.339035   -767.339035   1496.963300
     2   0 1 1      0.000000      0.000000      0.000000      0.000000

  Root   1 singlet bu             0.196071264 a.u.                5.3354 eV
     Dipole Oscillator Strength                    0.1611342058
  Root   2 singlet bu             0.197401493 a.u.                5.3716 eV
     Dipole Oscillator Strength                    0.6826580992
  Root   3 singlet ag             0.228384872 a.u.                6.2147 eV
     Dipole Oscillator Strength                    0.0000000000
  Root   4 singlet bu             0.248809285 a.u.                6.7704 eV
     Dipole Oscillator Strength                    0.1814287079
  Root   5 singlet ag             0.272216910 a.u.                7.4074 eV
     Dipole Oscillator Strength                    0.0000000000
 Total times  cpu:      102.7s     wall:      108.5s
