 Output coordinates in angstroms (scale by  1.889725989 to convert to a.u.)

  No.       Tag          Charge          X              Y              Z
 ---- ---------------- ---------- -------------- -------------- --------------
    1 C                    6.0000     0.23680554     1.41416660     0.00000000
    2 C                    6.0000    -0.23680554    -1.41416660     0.00000000
    3 C                    6.0000     1.31675086     0.48901061     0.00000000
    4 C                    6.0000    -1.31675086    -0.48901061     0.00000000
    5 C                    6.0000     1.08679847    -0.89447642     0.00000000
    6 C                    6.0000    -1.08679847     0.89447642     0.00000000
    7 H                    1.0000     2.34780221     0.86863451     0.00000000
    8 H                    1.0000    -2.34780221    -0.86863451     0.00000000
    9 H                    1.0000     1.93764188    -1.58693865     0.00000000
   10 H                    1.0000    -1.93764188     1.58693865     0.00000000
   11 C                    6.0000    -0.53450789    -2.88212824     0.00000000
   12 C                    6.0000     0.53450789     2.88212824     0.00000000
   13 H                    1.0000    -1.60655769    -3.13289308     0.00000000
   14 H                    1.0000     1.60655769     3.13289308     0.00000000
   15 C                    6.0000     0.36419263    -3.88177971     0.00000000
   16 C                    6.0000    -0.36419263     3.88177971     0.00000000
   17 H                    1.0000     1.44522900    -3.70144241     0.00000000
   18 H                    1.0000    -1.44522900     3.70144241     0.00000000
   19 H                    1.0000     0.04815351    -4.93192286     0.00000000
   20 H                    1.0000    -0.04815351     4.93192286     0.00000000

         Total DFT energy =     -382.308241064755
         Total DFT energy =     -382.308241078404

 Vector   41  Occ=0.000000D+00  E= 3.324831D-01  Symmetry=ag

 Vector   42  Occ=0.000000D+00  E= 3.406431D-01  Symmetry=bu

 Vector   43  Occ=0.000000D+00  E= 3.795208D-01  Symmetry=bu

 Vector   44  Occ=0.000000D+00  E= 3.812879D-01  Symmetry=ag

 Vector   45  Occ=0.000000D+00  E= 4.103421D-01  Symmetry=ag

 Vector   46  Occ=0.000000D+00  E= 4.112339D-01  Symmetry=bu

 Vector   47  Occ=0.000000D+00  E= 4.258005D-01  Symmetry=bu

 Vector   48  Occ=0.000000D+00  E= 4.393589D-01  Symmetry=ag

 Vector   49  Occ=0.000000D+00  E= 4.537206D-01  Symmetry=bu

 Vector   50  Occ=0.000000D+00  E= 4.783347D-01  Symmetry=ag

 Vector   51  Occ=0.000000D+00  E= 5.255617D-01  Symmetry=ag

 Vector   52  Occ=0.000000D+00  E= 5.463502D-01  Symmetry=bu

 Vector   53  Occ=0.000000D+00  E= 5.764350D-01  Symmetry=ag

 Vector   54  Occ=0.000000D+00  E= 5.984360D-01  Symmetry=bu

 Vector   55  Occ=0.000000D+00  E= 6.248960D-01  Symmetry=bu

 Vector   56  Occ=0.000000D+00  E= 6.398314D-01  Symmetry=ag

 Vector   57  Occ=0.000000D+00  E= 6.828339D-01  Symmetry=ag

 Vector   58  Occ=0.000000D+00  E= 7.173538D-01  Symmetry=bu

 Vector   59  Occ=0.000000D+00  E= 7.790400D-01  Symmetry=ag

 Vector   60  Occ=0.000000D+00  E= 7.942614D-01  Symmetry=bu

         Total DFT energy =     -382.308240803802

                       DFT Final Molecular Orbital Analysis
                       ------------------------------------

 Vector    1  Occ=2.000000D+00  E=-1.002023D+01

 Vector    2  Occ=2.000000D+00  E=-1.002018D+01

 Vector    3  Occ=2.000000D+00  E=-1.000794D+01

 Vector    4  Occ=2.000000D+00  E=-1.000794D+01

 Vector    5  Occ=2.000000D+00  E=-1.000689D+01

 Vector    6  Occ=2.000000D+00  E=-1.000689D+01

 Vector    7  Occ=2.000000D+00  E=-1.000624D+01

 Vector    8  Occ=2.000000D+00  E=-1.000610D+01

 Vector    9  Occ=2.000000D+00  E=-9.992162D+00

 Vector   10  Occ=2.000000D+00  E=-9.992162D+00

 Vector   11  Occ=2.000000D+00  E=-8.094671D-01

 Vector   12  Occ=2.000000D+00  E=-7.539366D-01

 Vector   13  Occ=2.000000D+00  E=-7.178637D-01

 Vector   14  Occ=2.000000D+00  E=-6.999242D-01

 Vector   15  Occ=2.000000D+00  E=-6.673156D-01

 Vector   16  Occ=2.000000D+00  E=-5.885104D-01

 Vector   17  Occ=2.000000D+00  E=-5.591525D-01

 Vector   18  Occ=2.000000D+00  E=-5.314221D-01

 Vector   19  Occ=2.000000D+00  E=-5.099381D-01

 Vector   20  Occ=2.000000D+00  E=-4.576009D-01

 Vector   21  Occ=2.000000D+00  E=-4.391986D-01

 Vector   22  Occ=2.000000D+00  E=-4.110193D-01

 Vector   23  Occ=2.000000D+00  E=-3.976932D-01

 Vector   24  Occ=2.000000D+00  E=-3.959394D-01

 Vector   25  Occ=2.000000D+00  E=-3.744313D-01

 Vector   26  Occ=2.000000D+00  E=-3.509384D-01

 Vector   27  Occ=2.000000D+00  E=-3.470162D-01

 Vector   28  Occ=2.000000D+00  E=-3.244714D-01

 Vector   29  Occ=2.000000D+00  E=-3.110655D-01

 Vector   30  Occ=2.000000D+00  E=-2.929849D-01

 Vector   31  Occ=2.000000D+00  E=-2.874973D-01

 Vector   32  Occ=2.000000D+00  E=-2.634576D-01

 Vector   33  Occ=2.000000D+00  E=-2.123388D-01

 Vector   34  Occ=2.000000D+00  E=-1.951700D-01

 Vector   35  Occ=2.000000D+00  E=-1.529972D-01

 Vector   36  Occ=0.000000D+00  E= 3.750873D-02

 Vector   37  Occ=0.000000D+00  E= 9.011547D-02

 Vector   38  Occ=0.000000D+00  E= 1.107255D-01

 Vector   39  Occ=0.000000D+00  E= 1.821996D-01

 Vector   40  Occ=0.000000D+00  E= 2.723004D-01

 Vector   41  Occ=0.000000D+00  E= 3.324833D-01

 Vector   42  Occ=0.000000D+00  E= 3.406433D-01

 Vector   43  Occ=0.000000D+00  E= 3.795209D-01

 Vector   44  Occ=0.000000D+00  E= 3.812888D-01

 Vector   45  Occ=0.000000D+00  E= 4.103421D-01

 Vector   46  Occ=0.000000D+00  E= 4.112339D-01

 Vector   47  Occ=0.000000D+00  E= 4.258004D-01

 Vector   48  Occ=0.000000D+00  E= 4.393584D-01

 Vector   49  Occ=0.000000D+00  E= 4.537211D-01

 Vector   50  Occ=0.000000D+00  E= 4.783350D-01

 Vector   51  Occ=0.000000D+00  E= 5.255612D-01

 Vector   52  Occ=0.000000D+00  E= 5.463504D-01

 Vector   53  Occ=0.000000D+00  E= 5.764346D-01

 Vector   54  Occ=0.000000D+00  E= 5.984358D-01

 Vector   55  Occ=0.000000D+00  E= 6.248962D-01

 Vector   56  Occ=0.000000D+00  E= 6.398312D-01

 Vector   57  Occ=0.000000D+00  E= 6.828344D-01

 Vector   58  Occ=0.000000D+00  E= 7.173545D-01

 Vector   59  Occ=0.000000D+00  E= 7.790397D-01

 Vector   60  Occ=0.000000D+00  E= 7.942614D-01

     Multipole analysis of the density
     ---------------------------------

     L   x y z        total         alpha         beta         nuclear
     -   - - -        -----         -----         ----         -------
     0   0 0 0     -0.000000    -35.000000    -35.000000     70.000000

     1   1 0 0     -0.000000     -0.000000     -0.000000      0.000000
     1   0 1 0      0.000000      0.000000      0.000000      0.000000
     1   0 0 1      0.000000      0.000000      0.000000      0.000000

     2   2 0 0    -37.347203   -141.071538   -141.071538    244.795872
     2   1 1 0      0.066044      2.848536      2.848536     -5.631027
     2   1 0 1     -0.000000     -0.000000     -0.000000      0.000000
     2   0 2 0    -37.713749   -767.338525   -767.338525   1496.963300
     2   0 1 1     -0.000000     -0.000000     -0.000000      0.000000

 Zero-Point correction to Energy  =  111.089 kcal/mol  (  0.177031 au)
 Thermal correction to Energy     =  116.660 kcal/mol  (  0.185909 au)
 Thermal correction to Enthalpy   =  117.252 kcal/mol  (  0.186853 au)
 Total Entropy                    =   91.888 cal/mol-K
   - Translational                =   40.484 cal/mol-K (mol. weight = 130.0782)
   - Rotational                   =   28.131 cal/mol-K (symmetry #  =        2)
   - Vibrational                  =   23.274 cal/mol-K
   - Translational                  =    2.979 cal/mol-K
   - Rotational                     =    2.979 cal/mol-K
   - Vibrational                    =   27.564 cal/mol-K
 P.Frequency       -0.00       -0.00       -0.00       -0.00        0.00        0.00
 P.Frequency       49.04       81.58      151.71      181.04      265.73      300.97
 P.Frequency      407.91      424.40      468.98      487.92      578.84      657.33
 P.Frequency      673.47      707.33      735.11      810.68      862.52      895.31
 P.Frequency      896.43      980.92      980.99     1017.72     1036.47     1073.56
 P.Frequency     1102.04     1107.65     1107.68     1110.62     1203.73     1260.96
 P.Frequency     1284.26     1296.18     1350.01     1398.53     1422.10     1427.47
 P.Frequency     1514.54     1565.41     1575.25     1639.65     1690.93     1738.51
 P.Frequency     1814.82     1815.80     3394.05     3394.78     3432.82     3432.82
 P.Frequency     3447.87     3451.34     3471.33     3474.29     3546.61     3546.66

 Normal Eigenvalue ||           Projected Infra Red Intensities
  Mode   [cm**-1]  || [atomic units] [(debye/angs)**2] [(KM/mol)] [arbitrary]
 ------ ---------- || -------------- ----------------- ---------- -----------
    1       -0.000 ||    0.000000           0.000         0.000       0.000
    2       -0.000 ||    0.000000           0.000         0.000       0.000
    3       -0.000 ||    0.000000           0.000         0.000       0.000
    4       -0.000 ||    0.000000           0.000         0.000       0.000
    5        0.000 ||    0.000000           0.000         0.000       0.000
    6        0.000 ||    0.000000           0.000         0.000       0.000
    7       49.036 ||    0.000031           0.001         0.030       0.068
    8       81.584 ||    0.000000           0.000         0.000       0.000
    9      151.709 ||    0.000359           0.008         0.350       0.796
   10      181.038 ||    0.000273           0.006         0.266       0.607
   11      265.733 ||    0.000000           0.000         0.000       0.000
   12      300.973 ||    0.000000           0.000         0.000       0.000
   13      407.914 ||    0.000000           0.000         0.000       0.000
   14      424.395 ||    0.000104           0.002         0.101       0.230
   15      468.980 ||    0.006013           0.139         5.862      13.348
   16      487.915 ||    0.001991           0.046         1.941       4.420
   17      578.840 ||    0.000000           0.000         0.000       0.000
   18      657.329 ||    0.000000           0.000         0.000       0.000
   19      673.468 ||    0.000000           0.000         0.000       0.000
   20      707.330 ||    0.000476           0.011         0.464       1.057
   21      735.109 ||    0.004426           0.102         4.315       9.825
   22      810.677 ||    0.000000           0.000         0.000       0.000
   23      862.517 ||    0.000000           0.000         0.000       0.000
   24      895.307 ||    0.000000           0.000         0.000       0.000
   25      896.426 ||    0.026922           0.621        26.245      59.762
   26      980.919 ||    0.000000           0.000         0.000       0.000
   27      980.994 ||    0.037510           0.865        36.566      83.265
   28     1017.723 ||    0.000000           0.000         0.000       0.000
   29     1036.472 ||    0.000007           0.000         0.007       0.016
   30     1073.555 ||    0.000500           0.012         0.487       1.110
   31     1102.043 ||    0.009062           0.209         8.834      20.117
   32     1107.654 ||    0.000000           0.000         0.000       0.000
   33     1107.676 ||    0.013505           0.312        13.165      29.979
   34     1110.622 ||    0.000000           0.000         0.000       0.000
   35     1203.733 ||    0.001529           0.035         1.491       3.394
   36     1260.957 ||    0.000000           0.000         0.000       0.000
   37     1284.262 ||    0.000053           0.001         0.052       0.119
   38     1296.184 ||    0.000000           0.000         0.000       0.000
   39     1350.008 ||    0.009261           0.214         9.028      20.559
   40     1398.535 ||    0.000000           0.000         0.000       0.000
   41     1422.101 ||    0.008709           0.201         8.490      19.332
   42     1427.475 ||    0.000000           0.000         0.000       0.000
   43     1514.543 ||    0.019390           0.447        18.903      43.043
   44     1565.414 ||    0.000000           0.000         0.000       0.000
   45     1575.248 ||    0.000597           0.014         0.582       1.324
   46     1639.648 ||    0.015699           0.362        15.305      34.850
   47     1690.931 ||    0.000000           0.000         0.000       0.000
   48     1738.511 ||    0.000000           0.000         0.000       0.000
   49     1814.824 ||    0.000000           0.000         0.000       0.000
   50     1815.797 ||    0.001538           0.035         1.500       3.415
   51     3394.052 ||    0.101457           2.341        98.905     225.216
   52     3394.781 ||    0.000000           0.000         0.000       0.000
   53     3432.815 ||    0.003765           0.087         3.671       8.359
   54     3432.819 ||    0.000000           0.000         0.000       0.000
   55     3447.869 ||    0.001332           0.031         1.298       2.956
   56     3451.342 ||    0.000000           0.000         0.000       0.000
   57     3471.326 ||    0.005759           0.133         5.614      12.783
   58     3474.289 ||    0.000000           0.000         0.000       0.000
   59     3546.613 ||    0.000023           0.001         0.023       0.052
   60     3546.660 ||    0.000000           0.000         0.000       0.000
 ----------------------------------------------------------------------------

 Total times  cpu:      219.1s     wall:      231.8s
