                         Program Version 5.0.4 -  RELEASE  -
|  1> ! MP2 STO-3G NBO
|  2>
|  3> %pal nprocs 4 end
|  4>
|  5> %scf ConvForced True end
|  6>
|  7> *xyz 0 1
|  8>   O      1.784914    1.262422    0.511985
|  9>   H      2.648237    1.072929    0.131631
| 10>   H      1.183168    1.256816   -0.238835
| 11> *
| 12>
| 13>                          ****END OF INPUT****

CARTESIAN COORDINATES (ANGSTROEM)
---------------------------------
  O      1.784914    1.262422    0.511985
  H      2.648237    1.072929    0.131631
  H      1.183168    1.256816   -0.238835

 Total Charge           Charge          ....    0
 Multiplicity           Mult            ....    1
 Number of Electrons    NEL             ....   10
 Basis Dimension        Dim             ....    7

ORBITAL ENERGIES
----------------

  NO   OCC          E(Eh)            E(eV)
   0   2.0000     -20.242273      -550.8202
   1   2.0000      -1.265785       -34.4438
   2   2.0000      -0.615357       -16.7447
   3   2.0000      -0.452273       -12.3070
   4   2.0000      -0.390879       -10.6364
   5   0.0000       0.600583        16.3427
   6   0.0000       0.736576        20.0432

MULLIKEN ATOMIC CHARGES
-----------------------
   0 O :   -0.361718
   1 H :    0.180855
   2 H :    0.180864
Sum of atomic charges:   -0.0000000

LOEWDIN ATOMIC CHARGES
----------------------
   0 O :   -0.250700
   1 H :    0.125348
   2 H :    0.125352

  Mayer bond orders larger than 0.100000
B(  0-O ,  1-H ) :   0.9549 B(  0-O ,  2-H ) :   0.9549

MP2 TOTAL ENERGY:      -74.999374667 Eh
FINAL SINGLE POINT ENERGY       -74.999374666846

DIPOLE MOMENT
-------------
                                X             Y             Z
Electronic contribution:     -0.06748       0.05033       0.29177
Nuclear contribution   :      0.21773      -0.16239      -0.94154
                        -----------------------------------------
Total Dipole Moment    :      0.15024      -0.11207      -0.64978
                        -----------------------------------------
Magnitude (a.u.)       :      0.67627
Magnitude (Debye)      :      1.71894

Rotational constants in cm-1:    27.172637    14.432751     9.426085
Rotational constants in MHz : 814615.168427 432682.991980 282586.906303

                             ****ORCA TERMINATED NORMALLY****
TOTAL RUN TIME: 0 days 0 hours 0 minutes 0 seconds 626 msec
