 Q-Chem 6.0, Q-Chem, Inc., Pleasanton, CA (2022)
 Q-Chem 6.0.0 for Intel X86 EM64T Linux

User input:
--------------------------------------------------------------
$molecule
0 1
O
H 1 R1
H 1 R1 2 A1

R1=0.99
A1=106.0
$end

$rem
method = hf
basis = sto-3g
gui = 2
solvent_method = sm12
$end

$smx
solvent toluene
charges cm5
$end
--------------------------------------------------------------

             Standard Nuclear Orientation (Angstroms)
    I     Atom           X                Y                Z
 ----------------------------------------------------------------
    1      O       0.0000000000     0.0000000000     0.0000000000
    2      H       0.0000000000     0.0000000000     0.9900000000
    3      H       0.9516490790     0.0000000000    -0.2728809823
 ----------------------------------------------------------------

    6     -74.9643136417      6.19e-06  Convergence criterion met
 Total energy in the final basis set =      -74.9691057924

                    Orbital Energies (a.u.)
 --------------------------------------------------------------

 Alpha MOs
 -- Occupied --
-20.2395  -1.2482  -0.6004  -0.4434  -0.3863

          Ground-State Mulliken Net Atomic Charges

     Atom                 Charge (a.u.)
  ----------------------------------------
      1 O                    -0.346819
      2 H                     0.173410
      3 H                     0.173410
  ----------------------------------------
  Sum of atomic charges =     0.000000

                    Cartesian Multipole Moments
 -----------------------------------------------------------------
    Charge (ESU x 10^10)
                 0.0000
    Dipole Moment (Debye)
         X       1.3510      Y       0.0000      Z       1.0180
       Tot       1.6916
    Quadrupole Moments (Debye-Ang)
        XX      -4.7385     XY      -0.0000     YY      -6.1182
        XZ      -0.3524     YZ      -0.0000     ZZ      -4.5364

 Total job time:  0.28s(wall), 0.13s(cpu)
        *  Thank you very much for using Q-Chem.  Have a nice day.  *
